VARIABLES = X, Y, Z
ZONE N=92 E=180 F=FEPOINT ET=TRIANGLE
1.2759762000000001 0.78859665 -1.9987526556501935e-18
-1.2759762000000001 0.78859665 -1.9987526556501935e-18
1.2759762000000001 -0.78859665 -1.9987526556501935e-18
-1.2759762000000001 -0.78859665 -1.9987526556501935e-18
0.78859665 4.390117440088821e-18 0.4253254
0.78859665 4.390117440088821e-18 -0.4253254
-0.78859665 4.390117440088821e-18 0.4253254
-0.78859665 4.390117440088821e-18 -0.4253254
1.1778363863652926e-16 1.2759762000000001 0.26286555
1.1778363863652926e-16 -1.2759762000000001 0.26286555
1.1778363863652926e-16 1.2759762000000001 -0.26286555
1.1778363863652926e-16 -1.2759762000000001 -0.26286555
1.2820931999999998 0.6053223000000001 0.1632387
1.0950384 0.30266115000000005 0.32647735
1.4012586 4.390117440088821e-18 0.17841105
1.46914815 0.30266115000000005 -1.9987526556501935e-18
1.46914815 -0.30266115000000005 -1.9987526556501935e-18
1.2820931999999998 -0.6053223000000001 -0.1632387
1.0950384 -0.30266115000000005 -0.32647735
1.4012586 4.390117440088821e-18 -0.17841105
0.97943205 1.0950384 0.10088705
0.4897161000000001 1.2820931999999998 0.2017741
0.86602545 0.86602545 0.28867515
1.2820931999999998 0.6053223000000001 -0.1632387
1.0950384 0.30266115000000005 -0.32647735
0.6053223000000002 0.4897161 -0.4273644
0.30266115000000016 0.97943205 -0.3650128
0.86602545 0.86602545 -0.28867515
0.97943205 1.0950384 -0.10088705
0.4897161000000001 1.2820931999999998 -0.2017741
0.5352331500000002 1.4012586 -1.9987526556501935e-18
-1.46914815 0.30266115000000005 -1.9987526556501935e-18
-1.46914815 -0.30266115000000005 -1.9987526556501935e-18
-1.2820931999999998 -0.6053223000000001 0.1632387
-1.0950384 -0.30266115000000005 0.32647735
-1.4012586 4.390117440088821e-18 0.17841105
-1.2820931999999998 0.6053223000000001 -0.1632387
-1.0950384 0.30266115000000005 -0.32647735
-1.4012586 4.390117440088821e-18 -0.17841105
-1.2820931999999998 0.6053223000000001 0.1632387
-1.0950384 0.30266115000000005 0.32647735
-0.6053222999999999 0.4897161 0.4273644
-0.3026611499999999 0.97943205 0.3650128
-0.86602545 0.86602545 0.28867515
-0.97943205 1.0950384 -0.10088705
-0.48971609999999977 1.2820931999999998 -0.2017741
-0.86602545 0.86602545 -0.28867515
-0.97943205 1.0950384 0.10088705
-0.48971609999999977 1.2820931999999998 0.2017741
1.1778363863652926e-16 1.46914815 0.10088705
1.1778363863652926e-16 1.46914815 -0.10088705
-0.5352331499999998 1.4012586 -1.9987526556501935e-18
1.2820931999999998 -0.6053223000000001 0.1632387
1.0950384 -0.30266115000000005 0.32647735
0.6053223000000002 -0.4897161 0.4273644
0.30266115000000016 -0.97943205 0.3650128
0.86602545 -0.86602545 0.28867515
0.97943205 -1.0950384 -0.10088705
0.4897161000000001 -1.2820931999999998 -0.2017741
0.86602545 -0.86602545 -0.28867515
0.97943205 -1.0950384 0.10088705
0.4897161000000001 -1.2820931999999998 0.2017741
1.1778363863652926e-16 -1.46914815 0.10088705
1.1778363863652926e-16 -1.46914815 -0.10088705
0.5352331500000002 -1.4012586 -1.9987526556501935e-18
-0.97943205 -1.0950384 0.10088705
-0.48971609999999977 -1.2820931999999998 0.2017741
-0.86602545 -0.86602545 0.28867515
-1.2820931999999998 -0.6053223000000001 -0.1632387
-1.0950384 -0.30266115000000005 -0.32647735
-0.6053222999999999 -0.4897161 -0.4273644
-0.3026611499999999 -0.97943205 -0.3650128
-0.86602545 -0.86602545 -0.28867515
-0.97943205 -1.0950384 -0.10088705
-0.48971609999999977 -1.2820931999999998 -0.2017741
-0.5352331499999998 -1.4012586 -1.9987526556501935e-18
0.6053223000000002 0.4897161 0.4273644
0.30266115000000016 0.97943205 0.3650128
1.1778363863652926e-16 0.5352331499999999 0.4670862
0.30266115000000016 4.390117440088821e-18 0.48971605
-0.3026611499999999 4.390117440088821e-18 0.48971605
-0.6053222999999999 -0.4897161 0.4273644
-0.3026611499999999 -0.97943205 0.3650128
1.1778363863652926e-16 -0.5352331499999999 0.4670862
0.30266115000000016 4.390117440088821e-18 -0.48971605
-0.3026611499999999 4.390117440088821e-18 -0.48971605
-0.6053222999999999 0.4897161 -0.4273644
-0.3026611499999999 0.97943205 -0.3650128
1.1778363863652926e-16 0.5352331499999999 -0.4670862
0.6053223000000002 -0.4897161 -0.4273644
0.30266115000000016 -0.97943205 -0.3650128
1.1778363863652926e-16 -0.5352331499999999 -0.4670862
3 17 53
17 15 53
53 15 54
15 14 54
54 14 5
17 16 15
16 13 15
15 13 14
16 1 13
1 16 24
16 20 24
24 20 25
20 19 25
25 19 6
16 17 20
17 18 20
20 18 19
17 3 18
5 14 77
14 23 77
77 23 78
23 22 78
78 22 9
14 13 23
13 21 23
23 21 22
13 1 21
1 24 29
24 28 29
29 28 30
28 27 30
30 27 11
24 25 28
25 26 28
28 26 27
25 6 26
9 22 50
22 31 50
50 31 51
31 30 51
51 30 11
22 21 31
21 29 31
31 29 30
21 1 29
2 32 40
32 36 40
40 36 41
36 35 41
41 35 7
32 33 36
33 34 36
36 34 35
33 4 34
4 33 69
33 39 69
69 39 70
39 38 70
70 38 8
33 32 39
32 37 39
39 37 38
32 2 37
2 40 48
40 44 48
48 44 49
44 43 49
49 43 9
40 41 44
41 42 44
44 42 43
41 7 42
8 38 87
38 47 87
87 47 88
47 46 88
88 46 11
38 37 47
37 45 47
47 45 46
37 2 45
2 48 45
48 52 45
45 52 46
52 51 46
46 51 11
48 49 52
49 50 52
52 50 51
49 9 50
3 53 61
53 57 61
61 57 62
57 56 62
62 56 10
53 54 57
54 55 57
57 55 56
54 5 55
6 19 90
19 60 90
90 60 91
60 59 91
91 59 12
19 18 60
18 58 60
60 58 59
18 3 58
3 61 58
61 65 58
58 65 59
65 64 59
59 64 12
61 62 65
62 63 65
65 63 64
62 10 63
7 35 82
35 68 82
82 68 83
68 67 83
83 67 10
35 34 68
34 66 68
68 66 67
34 4 66
4 69 74
69 73 74
74 73 75
73 72 75
75 72 12
69 70 73
70 71 73
73 71 72
70 8 71
10 67 63
67 76 63
63 76 64
76 75 64
64 75 12
67 66 76
66 74 76
76 74 75
66 4 74
7 81 42
81 79 42
42 79 43
79 78 43
43 78 9
81 80 79
80 77 79
79 77 78
80 5 77
5 80 55
80 84 55
55 84 56
84 83 56
56 83 10
80 81 84
81 82 84
84 82 83
81 7 82
6 85 26
85 89 26
26 89 27
89 88 27
27 88 11
85 86 89
86 87 89
89 87 88
86 8 87
8 86 71
86 92 71
71 92 72
92 91 72
72 91 12
86 85 92
85 90 92
92 90 91
85 6 90
